# vtk DataFile Version 4.1
vtk output
ASCII
DATASET UNSTRUCTURED_GRID
POINTS 6 float
0 0 0 1 0 0 1 1 0 
0 1 0 2 0 0 2 1 0 

CELLS 2 10
4 0 1 2 3 
4 1 4 5 2 

CELL_TYPES 2
9
9

CELL_DATA 2
FIELD FieldData 2
MyScalar 1 2 double
1 2 
EField 3 2 double
1 0 0 2 0 0 
